

     ************************************************************************
     *************** Dalton - An Electronic Structure Program ***************
     ************************************************************************

    This is output from DALTON release Dalton2022.0-dev (2022)
         ( Web site: http://daltonprogram.org )

   ----------------------------------------------------------------------------

    NOTE:
     
    Dalton is an experimental code for the evaluation of molecular
    properties using (MC)SCF, DFT, CI, and CC wave functions.
    The authors accept no responsibility for the performance of
    the code or for the correctness of the results.
     
    The code (in whole or part) is provided under a licence and
    is not to be reproduced for further distribution without
    the written permission of the authors or their representatives.
     
    See the home page "http://daltonprogram.org" for further information.
     
    If results obtained with this code are published,
    the appropriate citations would be both of:
     
       K. Aidas, C. Angeli, K. L. Bak, V. Bakken,
       R. Bast, L. Boman, O. Christiansen, R. Cimiraglia,
       S. Coriani, P. Dahle, E. K. Dalskov, U. Ekstroem,
       T. Enevoldsen, J. J. Eriksen, P. Ettenhuber, B. Fernandez,
       L. Ferrighi, H. Fliegl, L. Frediani, K. Hald, A. Halkier,
       C. Haettig, H. Heiberg, T. Helgaker, A. C. Hennum,
       H. Hettema, E. Hjertenaes, S. Hoest, I.-M. Hoeyvik,
       M. F. Iozzi, B. Jansik, H. J. Aa. Jensen, D. Jonsson,
       P. Joergensen, J. Kauczor, S. Kirpekar,
       T. Kjaergaard, W. Klopper, S. Knecht, R. Kobayashi, H. Koch,
       J. Kongsted, A. Krapp, K. Kristensen, A. Ligabue,
       O. B. Lutnaes, J. I. Melo, K. V. Mikkelsen, R. H. Myhre,
       C. Neiss, C. B. Nielsen, P. Norman, J. Olsen,
       J. M. H. Olsen, A. Osted, M. J. Packer, F. Pawlowski,
       T. B. Pedersen, P. F. Provasi, S. Reine, Z. Rinkevicius,
       T. A. Ruden, K. Ruud, V. Rybkin, P. Salek, C. C. M. Samson,
       A. Sanchez de Meras, T. Saue, S. P. A. Sauer,
       B. Schimmelpfennig, K. Sneskov, A. H. Steindal,
       K. O. Sylvester-Hvid, P. R. Taylor, A. M. Teale,
       E. I. Tellgren, D. P. Tew, A. J. Thorvaldsen, L. Thoegersen,
       O. Vahtras, M. A. Watson, D. J. D. Wilson, M. Ziolkowski
       and H. Agren,
       "The Dalton quantum chemistry program system",
       WIREs Comput. Mol. Sci. 2014, 4:269–284 (doi: 10.1002/wcms.1172)
     
    and
     
       Dalton, a molecular electronic structure program,
       Release Dalton2022.0-dev (2022), see http://daltonprogram.org
   ----------------------------------------------------------------------------

    Authors in alphabetical order (Major contribution(s) in parenthesis):

  Kestutis Aidas,              Vilnius University,        Lithuania   (QM/MM)
  Celestino Angeli,            University of Ferrara,     Italy       (NEVPT2)
  Juan J. Aucar,               Northeast National UniversiArgentina   (LRESC, Relativistic Effects on EFG)
  Keld L. Bak,                 UNI-C,                     Denmark     (AOSOPPA, non-adiabatic coupling, magnetic properties)
  Vebjoern Bakken,             University of Oslo,        Norway      (DALTON; geometry optimizer, symmetry detection)
  Radovan Bast,                UiT The Arctic U. of NorwayNorway      (DALTON installation and execution frameworks)
  Pablo Baudin,                University of Valencia,    Spain       (Cholesky excitation energies)
  Linus Boman,                 NTNU,                      Norway      (Cholesky decomposition and subsystems)
  Bruno N. Cabral Tenorio,     Technical Univ. of Denmark,Denmark     (Lanczos-based CC methods)
  Ove Christiansen,            Aarhus University,         Denmark     (CC module)
  Renzo Cimiraglia,            University of Ferrara,     Italy       (NEVPT2)
  Sonia Coriani,               Technical Univ. of Denmark,Denmark     (CC and RESPONS modules)
  Janusz Cukras,               University of Warsaw,      Poland      (MChD in RESPONS)
  Paal Dahle,                  University of Oslo,        Norway      (Parallelization)
  Erik K. Dalskov,             UNI-C,                     Denmark     (SOPPA)
  Thomas Enevoldsen,           Univ. of Southern Denmark, Denmark     (SOPPA)
  Janus J. Eriksen,            Aarhus University,         Denmark     (Polarizable embedding, TDA)
  Rasmus Faber,                Technical Univ. of Denmark,Denmark     (Vib.avg. NMR w. SOPPA, parallel AO-SOPPA, CVS-CC and EOMCC)
  Tobias Fahleson,             KTH Stockholm,             Sweden      (Damped cubic response)
  Berta Fernandez,             U. of Santiago de CompostelSpain       (Doublet spin, ESR in RESPONS)
  Lara Ferrighi,               Aarhus University,         Denmark     (PCM Cubic response)
  Heike Fliegl,                University of Oslo,        Norway      (CCSD(R12))
  Luca Frediani,               UiT The Arctic U. of NorwayNorway      (PCM)
  Emmanuel Fromager,           Univ. Strasbourg,          France      (MC-srDFT)
  Bin Gao,                     UiT The Arctic U. of NorwayNorway      (Gen1Int library)
  Andre S. P. Gomes,           CNRS/Universite de Lille,  France      (Frozen density embedding)
  Christof Haettig,            Ruhr-University Bochum,    Germany     (CC module)
  Kasper Hald,                 Aarhus University,         Denmark     (CC module)
  Asger Halkier,               Aarhus University,         Denmark     (CC module)
  Frederik Beyer Hansen,       University of Copenhagen,  Denmark     (Parallel AO-SOPPA)
  Erik D. Hedegaard,           Univ. of Southern Denmark, Denmark     (Polarizable embedding, QM/MM, and MC-srDFT)
  Hanne Heiberg,               University of Oslo,        Norway      (Geometry analysis, selected one-electron integrals)
  Trygve Helgaker,             University of Oslo,        Norway      (DALTON; ABACUS, ERI, DFT modules, London, and much more)
  Alf Christian Hennum,        University of Oslo,        Norway      (Parity violation)
  Hinne Hettema,               University of Auckland,    New Zealand (Quadratic response in RESPONS; SIRIUS supersymmetry)
  Andreas E. Hillers-Bendtsen, University of Copenhagen,  Denmark     (MP3)
  Eirik Hjertenaes,            NTNU,                      Norway      (Cholesky decomposition)
  Nicolai Machholdt Hoeyer,    Aarhus University,         Denmark     (MP3)
  Pi A. B. Haase,              University of Copenhagen,  Denmark     (Triplet AO-SOPPA)
  Maria Francesca Iozzi,       University of Oslo,        Norway      (RPA)
  Christoph Jacob              TU Braunschweig            Germany     (Frozen density embedding)
  Brano Jansik                 Technical Univ. of Ostrava Czech Rep.  (DFT cubic response)
  Hans Joergen Aa. Jensen,     Univ. of Southern Denmark, Denmark     (DALTON; SIRIUS, RESPONS, ABACUS, MC-srDFT, and much more)
  Dan Jonsson,                 UiT The Arctic U. of NorwayNorway      (Cubic response in RESPONS module)
  Poul Joergensen,             Aarhus University,         Denmark     (RESPONS, ABACUS, and CC modules)
  Maciej Kaminski,             University of Warsaw,      Poland      (CPPh in RESPONS)
  Joanna Kauczor,              Linkoeping University,     Sweden      (Complex polarization propagator (CPP) module)
  Sheela Kirpekar,             Univ. of Southern Denmark, Denmark     (Mass-velocity & Darwin integrals)
  Frederik Oersted Kjeldal,    Technical Univ. of Denmark,Denmark     (MP3)
  Erik Kjellgren,              Univ. of Southern Denmark, Denmark     (MC-srDFT)
  Wim Klopper,                 KIT Karlsruhe,             Germany     (R12 code in CC, SIRIUS, and ABACUS modules)
  Stefan Knecht,               ETH Zurich,                Switzerland (Parallel CI and MCSCF, MC-srDFT)
  Rika Kobayashi,              Australian National Univ., Australia   (DIIS in CC, London in MCSCF)
  Henrik Koch,                 NTNU,                      Norway      (CC module, Cholesky decomposition)
  Jacob Kongsted,              Univ. of Southern Denmark, Denmark     (Polarizable embedding, polarizable density embedding, QM/MM)
  Andrea Ligabue,              University of Modena,      Italy       (CTOCD, AOSOPPA)
  Nanna H. List                Univ. of Southern Denmark, Denmark     (Polarizable embedding)
  Ola B. Lutnaes,              University of Oslo,        Norway      (DFT Hessian)
  Juan I. Melo,                University of Buenos Aires,Argentina   (LRESC, Relativistic Effects on NMR Shieldings)
  Kurt V. Mikkelsen,           University of Copenhagen,  Denmark     (MC-SCRF, QM/MM, and MP3)
  Rolf H. Myhre,               NTNU,                      Norway      (Subsystems and CC3)
  Christian Neiss,             Univ. Erlangen-Nuernberg,  Germany     (CCSD(R12))
  Christian B. Nielsen,        University of Copenhagen,  Denmark     (QM/MM)
  Patrick Norman,              KTH Stockholm,             Sweden      (Cubic response and complex frequency response in RESPONS)
  Jeppe Olsen,                 Aarhus University,         Denmark     (SIRIUS CI/density modules)
  Jogvan Magnus H. Olsen,      Aarhus University,         Denmark     (Polarizable embedding and polarizable density embedding)
  Anders Osted,                Copenhagen University,     Denmark     (QM/MM)
  Martin J. Packer,            University of Sheffield,   UK          (SOPPA)
  Filip Pawlowski,             Kazimierz Wielki UniversityPoland      (CC3)
  Morten N. Pedersen,          Univ. of Southern Denmark, Denmark     (Polarizable embedding)
  Thomas B. Pedersen,          University of Oslo,        Norway      (Cholesky decomposition)
  Patricio F. Provasi,         University of Northeastern,Argentina   (Analysis of coupling constants in localized orbitals)
  Peter Reinholdt,             Univ. of Southern Denmark, Denmark     (Polarizable embedding and polarizable density embedding)
  Zilvinas Rinkevicius,        KTH Stockholm,             Sweden      (open-shell DFT, ESR)
  Elias Rudberg,               KTH Stockholm,             Sweden      (DFT grid and basis info)
  Torgeir A. Ruden,            University of Oslo,        Norway      (Numerical derivatives in ABACUS)
  Kenneth Ruud,                UiT The Arctic U. of NorwayNorway      (DALTON; ABACUS magnetic properties and much more)
  Pawel Salek,                 KTH Stockholm,             Sweden      (DALTON; DFT code)
  Claire C. M. Samson          University of Karlsruhe    Germany     (Boys localization, r12 integrals in ERI)
  Alfredo Sanchez de Meras,    University of Valencia,    Spain       (CC module, Cholesky decomposition)
  Trond Saue,                  Paul Sabatier University,  France      (direct Fock matrix construction)
  Stephan P. A. Sauer,         University of Copenhagen,  Denmark     (SOPPA(CCSD), SOPPA prop., AOSOPPA, vibrational g-factors)
  Bernd Schimmelpfennig,       Forschungszentrum KarlsruheGermany     (AMFI module)
  Anna K. Schnack-Petersen,    University of Copenhagen,  Denmark     (RPA(D) and HRPA(D) properties in AOSOPPA)
  Kristian Sneskov,            Aarhus University,         Denmark     (Polarizable embedding, QM/MM)
  Arnfinn H. Steindal,         UiT The Arctic U. of NorwayNorway      (parallel QM/MM, polarizable embedding)
  Casper Steinmann,            Aalborg University,        Denmark     (QFIT, polarizable embedding)
  K. O. Sylvester-Hvid,        University of Copenhagen,  Denmark     (MC-SCRF)
  Peter R. Taylor,             VLSCI/Univ. of Melbourne,  Australia   (Symmetry handling ABACUS, integral transformation)
  Andrew M. Teale,             University of Nottingham,  England     (DFT-AC, DFT-D)
  David P. Tew,                University of Bristol,     England     (CCSD(R12))
  Julien Toulouse,             Sorbonne Univ.,            France      (MC-srDFT)
  Olav Vahtras,                KTH Stockholm,             Sweden      (Triplet response, spin-orbit, ESR, TDDFT, open-shell DFT)
  Lucas Visscher,              Vrije Universiteit AmsterdaNetherlands (Frozen density embedding)
  David J. Wilson,             La Trobe University,       Australia   (DFT Hessian and DFT magnetizabilities)
  Luna Zamok,                  University of Copenhagen,  Denmark     (Block Lanczos RPA solver in SOPPA module)
  Hans Agren,                  KTH Stockholm,             Sweden      (SIRIUS module, RESPONS, MC-SCRF solvation)
 --------------------------------------------------------------------------------

     Date and time (Linux)  : Mon Apr  3 12:37:03 2023
     Host name              : markhor                                 

 * Work memory size             :    64000000 =  488.28 megabytes.

 * Directories for basis set searches:
   1) /home/hapka/Programs/gammcor/testjobs/AC0/ethene
   2) /home/hapka/Programs/dalton/build_ifort/basis


Compilation information
-----------------------

 Who compiled             | hapka
 Host                     | markhor
 System                   | Linux-5.15.0-67-generic
 CMake generator          | Unix Makefiles
 Processor                | x86_64
 64-bit integers          | OFF
 MPI                      | OFF
 Fortran compiler         | /usr/bin/gfortran
 Fortran compiler version | GNU Fortran (Ubuntu 9.4.0-1ubuntu1~20.04.1) 9.4.0
 C compiler               | /usr/bin/gcc
 C compiler version       | gcc (Ubuntu 9.4.0-1ubuntu1~20.04.1) 9.4.0
 C++ compiler             | /usr/bin/g++
 C++ compiler version     | g++ (Ubuntu 9.4.0-1ubuntu1~20.04.1) 9.4.0
 BLAS                     | /opt/intel/oneapi/mkl/2022.1.0/lib/intel64/libmkl_
                          | gf_lp64.so;/opt/intel/oneapi/mkl/2022.1.0/lib/inte
                          | l64/libmkl_sequential.so;/opt/intel/oneapi/mkl/202
                          | 2.1.0/lib/intel64/libmkl_core.so;/usr/lib/x86_64-l
                          | inux-gnu/libpthread.so;/usr/lib/x86_64-linux-gnu/l
                          | ibm.so
 LAPACK                   | /opt/intel/oneapi/mkl/2022.1.0/lib/intel64/libmkl_
                          | lapack95_lp64.a;/opt/intel/oneapi/mkl/2022.1.0/lib
                          | /intel64/libmkl_gf_lp64.so
 Static linking           | OFF
 Last Git revision        | e03cd4c33d8952dfeb70240c524eab00ab4952cf
 Git branch               | master
 Configuration time       | 2023-04-03 12:20:08.232816


   Content of the .dal input file
 ----------------------------------

**DALTON INPUT
.GAMMCOR
.RUN WAVEFUNCTION
**WAVE FUNCTIONS
.HF
.MP2
.MCSCF
.INTERFACE
*CONFIGURATION INPUT
.SYMMETRY
 1
.SPIN MUL
 1
.INACTIVE
 2 0 1 0 2 0 1 0
.ELECTRONS
 4
.CAS SPACE
 1 1 0 0 1 1 0 0
*OPTIMI
.STATE
 1
.TRACI
**END OF DALTON INPUT


   Content of the .mol file
 ----------------------------

BASIS
6-31G
CASSCF
for AC0 job
Atomtypes=2
Charge=6. Atoms=2
C1   0.0000000000 -0.0000000000 -1.26308
C2   0.0000000000 -0.0000000000  1.26308
Charge=1. Atoms=4
H1   0.00000 -1.748000 -2.33188
H2   0.00000  1.748000 -2.33188
H3   0.00000  1.748000  2.33188
H4   0.00000 -1.748000  2.33188



       *******************************************************************
       *********** Output from DALTON general input processing ***********
       *******************************************************************

 --------------------------------------------------------------------------------
   Overall default print level:    0
   Print level for DALTON.STAT:    1

    HERMIT 1- and 2-electron integral sections will be executed
    "Old" integral transformation used (limited to max 255 basis functions)
    Wave function sections will be executed (SIRIUS module)
    Information for GammCor will be calculated and written to files.
 --------------------------------------------------------------------------------


   ****************************************************************************
   *************** Output of molecule and basis set information ***************
   ****************************************************************************


    The two title cards from your ".mol" input:
    ------------------------------------------------------------------------
 1: CASSCF                                                                  
 2: for AC0 job                                                             
    ------------------------------------------------------------------------

  Atomic type no.    1
  --------------------
  Nuclear charge:   6.00000
  Number of symmetry independent centers:    2
  Number of basis sets to read;    2
  Basis set file used for this atomic type with Z =   6 :
     "/home/hapka/Programs/dalton/build_ifort/basis/6-31G"

  Info about the basis set file: your basis has no documentation.
  Basis set: 6-31G                                                                           

  Atomic type no.    2
  --------------------
  Nuclear charge:   1.00000
  Number of symmetry independent centers:    4
  Number of basis sets to read;    2
  Basis set file used for this atomic type with Z =   1 :
     "/home/hapka/Programs/dalton/build_ifort/basis/6-31G"

  Info about the basis set file: your basis has no documentation.
  Basis set: 6-31G                                                                           


                      SYMADD: Requested addition of symmetry
                      --------------------------------------

 Symmetry test threshold:  5.00E-06

@  The molecule has been centered at center of mass and rotated
@  so the principal axes of inertia are along coordinate axes.

 Symmetry class found: D(2h)          

 Symmetry Independent Centres             
 ----------------------------
C2     6 :      0.00000000     0.00000000     1.26308000  Isotope  1
H3     1 :      1.74800000     0.00000000     2.33188000  Isotope  1

 The following symmetry elements were found:   X  Y  Z  


                         SYMGRP: Point group information
                         -------------------------------

@    Full point group is: D(2h)          
@    Represented as:      D2h

@  * The irrep name for each symmetry:    1: Ag     2: B3u    3: B2u    4: B1g    5: B1u    6: B2g    7: B3g    8: Au 


   * The point group was generated by:

      Reflection in the yz-plane
      Reflection in the xz-plane
      Reflection in the xy-plane

   * Group multiplication table

        |  E   C2z  C2y  C2x   i   Oxy  Oxz  Oyz
   -----+----------------------------------------
     E  |  E   C2z  C2y  C2x   i   Oxy  Oxz  Oyz
    C2z | C2z   E   C2x  C2y  Oxy   i   Oyz  Oxz
    C2y | C2y  C2x   E   C2z  Oxz  Oyz   i   Oxy
    C2x | C2x  C2y  C2z   E   Oyz  Oxz  Oxy   i 
     i  |  i   Oxy  Oxz  Oyz   E   C2z  C2y  C2x
    Oxy | Oxy   i   Oyz  Oxz  C2z   E   C2x  C2y
    Oxz | Oxz  Oyz   i   Oxy  C2y  C2x   E   C2z
    Oyz | Oyz  Oxz  Oxy   i   C2x  C2y  C2z   E 

   * Character table

        |  E   C2z  C2y  C2x   i   Oxy  Oxz  Oyz
   -----+----------------------------------------
    Ag  |   1    1    1    1    1    1    1    1
    B3u |   1   -1   -1    1   -1    1    1   -1
    B2u |   1   -1    1   -1   -1    1   -1    1
    B1g |   1    1   -1   -1    1    1   -1   -1
    B1u |   1    1   -1   -1   -1   -1    1    1
    B2g |   1   -1    1   -1    1   -1    1   -1
    B3g |   1   -1   -1    1    1   -1   -1    1
    Au  |   1    1    1    1   -1   -1   -1   -1

   * Direct product table

        | Ag   B3u  B2u  B1g  B1u  B2g  B3g  Au 
   -----+----------------------------------------
    Ag  | Ag   B3u  B2u  B1g  B1u  B2g  B3g  Au 
    B3u | B3u  Ag   B1g  B2u  B2g  B1u  Au   B3g
    B2u | B2u  B1g  Ag   B3u  B3g  Au   B1u  B2g
    B1g | B1g  B2u  B3u  Ag   Au   B3g  B2g  B1u
    B1u | B1u  B2g  B3g  Au   Ag   B3u  B2u  B1g
    B2g | B2g  B1u  Au   B3g  B3u  Ag   B1g  B2u
    B3g | B3g  Au   B1u  B2g  B2u  B1g  Ag   B3u
    Au  | Au   B3g  B2g  B1u  B1g  B2u  B3u  Ag 


                                 Isotopic Masses
                                 ---------------

                           C2  _1     12.000000
                           C2  _2     12.000000
                           H3  _1      1.007825
                           H3  _2      1.007825
                           H3  _3      1.007825
                           H3  _4      1.007825

                       Total mass:    28.031300 amu
                       Natural abundance:  97.753 %

 Center-of-mass coordinates (a.u.):    0.000000    0.000000    0.000000
 Center-of-mass coordinates (Angs):    0.000000    0.000000    0.000000


  Atoms and basis sets
  --------------------

  Number of atom types :    2
  Total number of atoms:    6

  Basis set used is "6-31G" from the basis set library.

  label    atoms   charge   prim   cont     basis
  ----------------------------------------------------------------------
  C2          2    6.0000    22     9      [10s4p|3s2p]                                       
  H3          4    1.0000     4     2      [4s|2s]                                            
  ----------------------------------------------------------------------
  total:      6   16.0000    60    26
  ----------------------------------------------------------------------

  Threshold for neglecting AO integrals:  1.00D-12


  Cartesian Coordinates (a.u.)
  ----------------------------

  Total number of coordinates:   18
  C2  / 1 :     1  x   0.0000000000    2  y   0.0000000000    3  z   1.2630800000
  C2  / 2 :     4  x   0.0000000000    5  y   0.0000000000    6  z  -1.2630800000
  H3  / 1 :     7  x   1.7480000000    8  y   0.0000000000    9  z   2.3318800000
  H3  / 2 :    10  x  -1.7480000000   11  y   0.0000000000   12  z   2.3318800000
  H3  / 3 :    13  x   1.7480000000   14  y   0.0000000000   15  z  -2.3318800000
  H3  / 4 :    16  x  -1.7480000000   17  y   0.0000000000   18  z  -2.3318800000


  Symmetry Coordinates
  --------------------

  Number of coordinates in each symmetry:     3    3    2    1    3    3    2    1

  Symmetry  Ag  ( 1)

    1   C2    z    [  3  -    6 ]/2
    2   H3    x    [  7  -   10  +   13  -   16 ]/4
    3   H3    z    [  9  +   12  -   15  -   18 ]/4

  Symmetry  B3u ( 2)

    4   C2    x    [  1  +    4 ]/2
    5   H3    x    [  7  +   10  +   13  +   16 ]/4
    6   H3    z    [  9  -   12  -   15  +   18 ]/4

  Symmetry  B2u ( 3)

    7   C2    y    [  2  +    5 ]/2
    8   H3    y    [  8  +   11  +   14  +   17 ]/4

  Symmetry  B1g ( 4)

    9   H3    y    [  8  -   11  +   14  -   17 ]/4

  Symmetry  B1u ( 5)

   10   C2    z    [  3  +    6 ]/2
   11   H3    x    [  7  -   10  -   13  +   16 ]/4
   12   H3    z    [  9  +   12  +   15  +   18 ]/4

  Symmetry  B2g ( 6)

   13   C2    x    [  1  -    4 ]/2
   14   H3    x    [  7  +   10  -   13  -   16 ]/4
   15   H3    z    [  9  -   12  +   15  -   18 ]/4

  Symmetry  B3g ( 7)

   16   C2    y    [  2  -    5 ]/2
   17   H3    y    [  8  +   11  -   14  -   17 ]/4

  Symmetry  Au  ( 8)

   18   H3    y    [  8  -   11  -   14  +   17 ]/4


   Interatomic separations (in Angstrom):
   --------------------------------------

            C2  _1      C2  _2      H3  _1      H3  _2      H3  _3      H3  _4
            ------      ------      ------      ------      ------      ------
 C2  _1:    0.000000
 C2  _2:    1.336786    0.000000
 H3  _1:    1.084211    2.115335    0.000000
 H3  _2:    1.084211    2.115335    1.850004    0.000000
 H3  _3:    2.115335    1.084211    2.467956    3.084367    0.000000
 H3  _4:    2.115335    1.084211    3.084367    2.467956    1.850004    0.000000


  Max    interatomic separation is    3.0844 Angstrom (    5.8286 Bohr)
  between atoms    5 and    4, "H3  _3" and "H3  _2".

  Min HX interatomic separation is    1.0842 Angstrom (    2.0489 Bohr)

  Min YX interatomic separation is    1.3368 Angstrom (    2.5262 Bohr)


  Bond distances (Angstrom):
  --------------------------

                  atom 1     atom 2       distance
                  ------     ------       --------
  bond distance:  C2  _2     C2  _1       1.336786
  bond distance:  H3  _1     C2  _1       1.084211
  bond distance:  H3  _2     C2  _1       1.084211
  bond distance:  H3  _3     C2  _2       1.084211
  bond distance:  H3  _4     C2  _2       1.084211


  Bond angles (degrees):
  ----------------------

                  atom 1     atom 2     atom 3         angle
                  ------     ------     ------         -----
  bond angle:     C2  _2     C2  _1     H3  _1       121.443
  bond angle:     C2  _2     C2  _1     H3  _2       121.443
  bond angle:     H3  _1     C2  _1     H3  _2       117.113
  bond angle:     C2  _1     C2  _2     H3  _3       121.443
  bond angle:     C2  _1     C2  _2     H3  _4       121.443
  bond angle:     H3  _3     C2  _2     H3  _4       117.113




 Principal moments of inertia (u*A**2) and principal axes
 --------------------------------------------------------

   IA       3.449294          0.000000    0.000000    1.000000
   IB      16.860451          1.000000    0.000000    0.000000
   IC      20.309745          0.000000    1.000000    0.000000


 Rotational constants
 --------------------

@    The molecule is planar.

               A                   B                   C

         146516.6418          29974.2288          24883.5724 MHz
            4.887269            0.999833            0.830027 cm-1


@  Nuclear repulsion energy :   33.312647795599 Hartree


  Symmetry Orbitals
  -----------------

  Number of orbitals in each symmetry:           7    4    2    0    7    4    2    0


  Symmetry  Ag ( 1)

    1     C2       1s         1 +    2
    2     C2       1s         3 +    4
    3     C2       1s         5 +    6
    4     C2       2pz       11 -   12
    5     C2       2pz       17 -   18
    6     H3       1s        19 +   20 +   21 +   22
    7     H3       1s        23 +   24 +   25 +   26


  Symmetry  B3u( 2)

    8     C2       2px        7 +    8
    9     C2       2px       13 +   14
   10     H3       1s        19 -   20 +   21 -   22
   11     H3       1s        23 -   24 +   25 -   26


  Symmetry  B2u( 3)

   12     C2       2py        9 +   10
   13     C2       2py       15 +   16


  No orbitals in symmetry  B1g( 4)


  Symmetry  B1u( 5)

   14     C2       1s         1 -    2
   15     C2       1s         3 -    4
   16     C2       1s         5 -    6
   17     C2       2pz       11 +   12
   18     C2       2pz       17 +   18
   19     H3       1s        19 +   20 -   21 -   22
   20     H3       1s        23 +   24 -   25 -   26


  Symmetry  B2g( 6)

   21     C2       2px        7 -    8
   22     C2       2px       13 -   14
   23     H3       1s        19 -   20 -   21 +   22
   24     H3       1s        23 -   24 -   25 +   26


  Symmetry  B3g( 7)

   25     C2       2py        9 -   10
   26     C2       2py       15 -   16


  No orbitals in symmetry  Au ( 8)

  Symmetries of electric field:  B3u(2)  B2u(3)  B1u(5)

  Symmetries of magnetic field:  B3g(7)  B2g(6)  B1g(4)


                     .---------------------------------------.
                     | Starting in Integral Section (HERMIT) |
                     `---------------------------------------'



 ***************************************************************************************
 ****************** Output from **INTEGRALS input processing (HERMIT) ******************
 ***************************************************************************************


 - Using defaults, no **INTEGRALS input found

 Default print level:        1

 Calculation of one- and two-electron Hamiltonian integrals.

 Center of mass  (bohr):      0.000000000000      0.000000000000      0.000000000000
 Operator center (bohr):      0.000000000000      0.000000000000      0.000000000000
 Gauge origin    (bohr):      0.000000000000      0.000000000000      0.000000000000
 Dipole origin   (bohr):      0.000000000000      0.000000000000      0.000000000000

Calculation of 2-electron integrals are postponed until they are needed.


     ************************************************************************
     ************************** Output from HERINT **************************
     ************************************************************************



                      Nuclear contribution to dipole moments
                      --------------------------------------

                    All dipole components are zero by symmetry


  Total CPU  time used in HERMIT:   0.01 seconds
  Total wall time used in HERMIT:   0.00 seconds


                        .----------------------------------.
                        | End of Integral Section (HERMIT) |
                        `----------------------------------'



                   .--------------------------------------------.
                   | Starting in Wave Function Section (SIRIUS) |
                   `--------------------------------------------'


 CI program in use: SIRIUS-CI

 *** Output from Huckel module :

     Using EWMO model:          F
     Using EHT  model:          T
     Number of Huckel orbitals each symmetry:    4    2    1    0    4    2    1    0

 Huckel EHT eigenvalues for symmetry :  1
          -11.390949      -1.280627      -0.515268      -0.208068

 Huckel EHT eigenvalues for symmetry :  2
           -0.747949      -0.208459

 Huckel EHT eigenvalues for symmetry :  3
           -0.520257

 Huckel EHT eigenvalues for symmetry :  5
          -11.373716      -0.913930      -0.232611      -0.171430

 Huckel EHT eigenvalues for symmetry :  6
           -0.508244      -0.177349

 Huckel EHT eigenvalues for symmetry :  7
           -0.293543

 SETCI, core memory needed for CI:
 LCINDX =         227
 LACIMX =         286
 LBCIMX =           0

 Number of determinants:            12

 Number of configurations:           8

 Time used in SETCI :      0.02s

 **********************************************************************
 *SIRIUS* a direct, restricted step, second order MCSCF program       *
 **********************************************************************

 
     Date and time (Linux)  : Mon Apr  3 12:37:03 2023
     Host name              : markhor                                 

 Title lines from ".mol" input file:
     CASSCF                                                                  
     for AC0 job                                                             

 Print level on unit LUPRI =   2 is   0
 Print level on unit LUW4  =   2 is   5

@    MCSCF optimization.
@              Type: complete active space calculation (CAS).

@    This is a combination run starting with
@              a restricted, closed shell Hartree-Fock calculation
@              an MP2 calculation


 Initial molecular orbitals are obtained according to
 ".MOSTART EHT   " input option

     Wave function specification
     ============================
@    Wave function type        --- MC-SCF ---
@    Number of closed shell electrons          12
@    Number of electrons in active shells       4
@    Total charge of the molecule               0

@    Spin multiplicity and 2 M_S                1         0
@    Total number of symmetries                 8 (point group: D2h)
@    Reference state symmetry                   1 (irrep name : Ag )

     Orbital specifications
     ======================
@    Abelian symmetry species          All |    1    2    3    4    5    6    7    8
@                                          |  Ag   B3u  B2u  B1g  B1u  B2g  B3g  Au 
                                       --- |  ---  ---  ---  ---  ---  ---  ---  ---
@    Inactive orbitals                   6 |    2    0    1    0    2    0    1    0
@    Active orbitals                     4 |    1    1    0    0    1    1    0    0
@    Secondary orbitals                 16 |    4    3    1    0    4    3    1    0
@    Total number of orbitals           26 |    7    4    2    0    7    4    2    0
@    Number of basis functions          26 |    7    4    2    0    7    4    2    0

      ** Automatic occupation of RHF orbitals **

      -- Initial occupation of symmetries is determined from extended Huckel guess.           
      -- Initial occupation of symmetries is :
@    Occupied SCF orbitals               8 |    3    1    1    0    2    1    0    0

     Optimization information
     ========================
@    Number of configurations                 8
@    Number of orbital rotations             36
     ------------------------------------------
@    Total number of variables               44

     Maximum number of macro iterations      25
     Maximum number of micro iterations     600
     Threshold for MCSCF gradient      1.00D-05
     Number of initial trial vectors          1
     Number of initial CI iterations         -1
     Number of simultaneous trial vectors     1

@    This calculation converges to the lowest state for the specified symmetry and spin species.

     Maximum number of NEO/NR iterations  24


 ***********************************************
 ***** DIIS acceleration of SCF iterations *****
 ***********************************************

 C1-DIIS algorithm; max error vectors =    8

 Automatic occupation of symmetries with  16 electrons.

 Iter     Total energy    Error norm  Delta(E)    SCF occupation
 -----------------------------------------------------------------------------

Calculating AOSUPINT

---> (Re)generating AOTWOINT


     ************************************************************************
     ************************** Output from HERINT **************************
     ************************************************************************


 Threshold for neglecting two-electron integrals:  1.00D-12
 HERMIT - Number of two-electron integrals written:       10094 ( 16.3% )
 HERMIT - Megabytes written:                              0.117

     (Precalculated AO two-electron integrals are transformed to P-supermatrix elements.
      Threshold for discarding integrals :  1.00D-12 )
@  1  -77.6895381936       2.32D+00  -7.77D+01     3   1   1   0   2   1   0   0
      Virial theorem: -V/T =      2.020472
@    MULPOP   C2  _1  0.28; C2  _2  0.28; H3  _1 -0.14; H3  _2 -0.14; H3  _3 -0.14; H3  _4 -0.14; 
   1  Level shift: doubly occupied orbital energies shifted by -2.00D-01
 -----------------------------------------------------------------------------
@  2  -77.9867705223       4.71D-01  -2.97D-01     3   1   1   0   2   1   0   0
      Virial theorem: -V/T =      1.996247
@    MULPOP   C2  _1 -0.28; C2  _2 -0.28; H3  _1  0.14; H3  _2  0.14; H3  _3  0.14; H3  _4  0.14; 
   2  Level shift: doubly occupied orbital energies shifted by -5.00D-02
 -----------------------------------------------------------------------------
@  3  -78.0025982464       1.07D-01  -1.58D-02     3   1   1   0   2   1   0   0
      Virial theorem: -V/T =      2.001819
@    MULPOP   C2  _1 -0.28; C2  _2 -0.28; H3  _1  0.14; H3  _2  0.14; H3  _3  0.14; H3  _4  0.14; 
   3  Level shift: doubly occupied orbital energies shifted by -1.25D-02
 -----------------------------------------------------------------------------
@  4  -78.0037743638       1.98D-02  -1.18D-03     3   1   1   0   2   1   0   0
      Virial theorem: -V/T =      2.000226
@    MULPOP   C2  _1 -0.32; C2  _2 -0.32; H3  _1  0.16; H3  _2  0.16; H3  _3  0.16; H3  _4  0.16; 
 -----------------------------------------------------------------------------
@  5  -78.0038319395       2.27D-03  -5.76D-05     3   1   1   0   2   1   0   0
      Virial theorem: -V/T =      2.000140
@    MULPOP   C2  _1 -0.33; C2  _2 -0.33; H3  _1  0.16; H3  _2  0.16; H3  _3  0.16; H3  _4  0.16; 
 -----------------------------------------------------------------------------
@  6  -78.0038326808       1.95D-04  -7.41D-07     3   1   1   0   2   1   0   0
      Virial theorem: -V/T =      2.000143
@    MULPOP   C2  _1 -0.33; C2  _2 -0.33; H3  _1  0.16; H3  _2  0.16; H3  _3  0.16; H3  _4  0.16; 
 -----------------------------------------------------------------------------
@  7  -78.0038326861       3.01D-05  -5.25D-09     3   1   1   0   2   1   0   0
      Virial theorem: -V/T =      2.000143
@    MULPOP   C2  _1 -0.33; C2  _2 -0.33; H3  _1  0.16; H3  _2  0.16; H3  _3  0.16; H3  _4  0.16; 
 -----------------------------------------------------------------------------
@  8  -78.0038326862       2.27D-06  -1.15D-10     3   1   1   0   2   1   0   0
      Virial theorem: -V/T =      2.000143
@    MULPOP   C2  _1 -0.33; C2  _2 -0.33; H3  _1  0.16; H3  _2  0.16; H3  _3  0.16; H3  _4  0.16; 
 -----------------------------------------------------------------------------
@  9  -78.0038326862       3.58D-07  -7.96D-13     3   1   1   0   2   1   0   0

@ *** DIIS converged in   9 iterations !
@     Converged SCF energy, gradient:    -78.003832686177    3.58D-07
    - total time used in SIRFCK :              0.00 seconds

 --- Writing SIRIFC interface file

--------------------------------------------------------------------------------


     .--------------------------------------------------.
     | HF-SCF KT IPs [a.u. & eV] from Koopmans' theorem |
     `--------------------------------------------------'


     HF-SCF KT symmetry 1 ( Ag ) in point group D2h -- 3 principal poles with pole strength 1

   ============  ============  ============
      11.233415      1.033061      0.582438
     305.676764     28.111009     15.848938
   ============  ============  ============

     HF-SCF KT symmetry 2 ( B3u) in point group D2h -- 1 principal poles with pole strength 1

   ============
       0.640675
      17.433660
   ============

     HF-SCF KT symmetry 3 ( B2u) in point group D2h -- 1 principal poles with pole strength 1

   ============
       0.371429
      10.107102
   ============

     HF-SCF KT symmetry 5 ( B1u) in point group D2h -- 2 principal poles with pole strength 1

   ============  ============
      11.231796      0.788434
     305.632723     21.454369
   ============  ============

     HF-SCF KT symmetry 6 ( B2g) in point group D2h -- 1 principal poles with pole strength 1

   ============
       0.499982
      13.605190
   ============

@ Summary of HF-SCF KT ionization potentials [eV]:

@ Symmetry 1 (Ag ) :   305.677      28.111      15.849

@ Symmetry 2 (B3u) :    17.434

@ Symmetry 3 (B2u) :    10.107

@ Symmetry 4 (B1g) :  No IPs in this symmetry

@ Symmetry 5 (B1u) :   305.633      21.454

@ Symmetry 6 (B2g) :    13.605

@ Symmetry 7 (B3g) :  No IPs in this symmetry

@ Symmetry 8 (Au ) :  No IPs in this symmetry

  === End of HF-SCF KT output ===
--------------------------------------------------------------------------------


 CPU and wall time for SCF :       0.017       0.017


 ----- Output from SIRIUS MP2 module -----

 Reference: H.J.Aa.Jensen, P.Jørgensen, H.Ågren, and J.Olsen,
            J. Chem. Phys. 88, 3834 (1988); 89, 5354 (1988)

 Checking that the closed shell orbitals are canonical Hartree-Fock orbitals

    Number of electrons  :   16
    Closed shell orbitals:    3    1    1    0    2    1    0    0

 Generating Fock matrix

 Hartree-Fock electronic energy:        -111.316480481776
 Hartree-Fock total      energy:         -78.003832686177

 Hartree-Fock orbital energies, symmetry 1 ( Ag ),    3 occupied SCF orbitals

       -11.23341472    -1.03306061    -0.58243778     0.26225517     0.68087681
         0.89408736     1.22884229

 Hartree-Fock orbital energies, symmetry 2 ( B3u),    1 occupied SCF orbitals

        -0.64067522     0.28876366     0.78736058     1.19067314

 Hartree-Fock orbital energies, symmetry 3 ( B2u),    1 occupied SCF orbitals

        -0.37142916     0.78471691

 Hartree-Fock orbital energies, symmetry 5 ( B1u),    2 occupied SCF orbitals

       -11.23179623    -0.78843358     0.30580748     0.48729244     0.99188516
         1.24054436     1.37680764

 Hartree-Fock orbital energies, symmetry 6 ( B2g),    1 occupied SCF orbitals

        -0.49998156     0.38951802     1.15018906     1.52117740

 Hartree-Fock orbital energies, symmetry 7 ( B3g),    0 occupied SCF orbitals

         0.17377381     0.88852640

    E(LUMO) :     0.17377381   (in symmetry 7)
  - E(HOMO) :    -0.37142916   (in symmetry 3)
  --------------------------
    gap     :     0.54520297

 2-el. integral transformation level 5: Total CPU and WALL times (sec)       0.003       0.003

 MP2 move   0.152444 electrons to unoccupied HF orbitals


@   Hartree-Fock total energy   :           -78.0038326862
@   + MP2 contribution          :            -0.1825595394
@   = MP2 second order energy   :           -78.1863922255

 Natural orbital occupation numbers, symmetry 1 (irrep Ag )
 Sum =     5.98464108; RHF =     6.00000000; Difference =    -0.01535892

         1.99990048     1.98767248     1.97295416     0.01455766     0.00521046
         0.00366396     0.00068188

 Natural orbital occupation numbers, symmetry 2 (irrep B3u)
 Sum =     2.00043697; RHF =     2.00000000; Difference =     0.00043697

         1.97983552     0.01415187     0.00580176     0.00064782

 Natural orbital occupation numbers, symmetry 3 (irrep B2u)
 Sum =     1.95413679; RHF =     2.00000000; Difference =    -0.04586321

         1.94768566     0.00645114

 Natural orbital occupation numbers, symmetry 5 (irrep B1u)
 Sum =     4.01830071; RHF =     4.00000000; Difference =     0.01830071

         1.99990547     1.98215252     0.01847801     0.01319418     0.00308438
         0.00113489     0.00035125

 Natural orbital occupation numbers, symmetry 6 (irrep B2g)
 Sum =     1.99555429; RHF =     2.00000000; Difference =    -0.00444571

         1.97852283     0.01486395     0.00198182     0.00018570

 Natural orbital occupation numbers, symmetry 7 (irrep B3g)
 Sum =     0.04693016; RHF =     0.00000000; Difference =     0.04693016

         0.04538809     0.00154207

 Time used for MP2 natural orbitals :       0.003 CPU seconds,       0.004 wall seconds.

 CPU and wall time for MP2 :       0.003       0.004


        SIRIUS MCSCF optimization (SIROPT)
 ================================================



 ----- Output from SIRIUS CI module (CICTL) -----




 2-el. integral transformation level 0: Total CPU and WALL times (sec)       0.001       0.001

 (CIST1) 8 lowest diagonal elements:

 Element no. Config.no.    Active energy      Total energy

         1 :          5     -4.3289522525    -77.0580180000
         2 :          1     -4.3090579668    -77.0381237143
         3 :          4     -4.1077887398    -76.8368544873
         4 :          7     -3.1996633581    -75.9287291056
         5 :          8     -3.1996633581    -75.9287291056
         6 :          3     -2.0660494487    -74.7951151962
         7 :          6     -1.9089070397    -74.6379727872
         8 :          2     -1.7553968286    -74.4844625760


 (CIST1) number of start vectors is increased from  1 to  2 because of (near) degeneracy
First 2 elements used as separate start vectors.


 Convergence threshold for CI optimization :     0.01000000


 The requested root number is now converged.


 *** CI converged in  3 iterations.



@ Final CI energies and residuals in symmetry 1 (irrep Ag )
@    1      -77.120978050815722       7.16D-03

   --- OUTPUT FROM SIRCNO     Keyword = ONLYFD



 --- MACRO ITERATION  1 ---
 --------------------------

 2-el. integral transformation level 3: Total CPU and WALL times (sec)       0.002       0.002

 Total MCSCF energy       :           -77.120978050815708  (MACRO    1)

 - Nuclear repulsion      :            33.312647795599183
 - Inactive energy        :          -106.041713543062656
 - Active energy          :            -4.391912303352242

 Norm of total gradient   :             1.236724407171
 -    of CI gradient      :             0.014317198321
 -    of orbital gradient :             1.236641531377


 *** Label "NATOCC  " not found on SIRIUS.RST in SIRPOP

 WARNING, occupation of active orbitals not available
          population analysis aborted.
          Use ".TRACI" option.


 Residual norm when dim(red L) =   5
 NEO root     CSF        orbital          total
    1     0.06003122     0.03312160     0.06856229 converged

 (NEONEX) NEO vector is converged.

   --- OUTPUT FROM SIRCNO     Keyword = FD+NO 



 --- MACRO ITERATION  2 ---
 --------------------------

 2-el. integral transformation level 3: Total CPU and WALL times (sec)       0.002       0.001

 Total MCSCF energy       :           -77.307540473058268  (MACRO    2)

 - Nuclear repulsion      :            33.312647795599183
 - Inactive energy        :          -105.827428670005887
 - Active energy          :            -4.792759598651552

 Norm of total gradient   :             0.236630201282
 -    of CI gradient      :             0.055690866271
 -    of orbital gradient :             0.229983433257
      Virial theorem: -V/T =      1.940931
@    MULPOP   C2  _1 -0.78; C2  _2 -0.78; H3  _1  0.39; H3  _2  0.39; H3  _3  0.39; H3  _4  0.39; 

 Residual norm when dim(red L) =   4
 NEO root     CSF        orbital          total
    1     0.03547519     0.01486123     0.03846226 converged

 (NEONEX) NEO vector is converged.

   --- OUTPUT FROM SIRCNO     Keyword = FD+NO 



 --- MACRO ITERATION  3 ---
 --------------------------

 2-el. integral transformation level 3: Total CPU and WALL times (sec)       0.002       0.002

 Total MCSCF energy       :           -77.316226171659949  (MACRO    3)

 - Nuclear repulsion      :            33.312647795599183
 - Inactive energy        :          -105.928300316408155
 - Active energy          :            -4.700573650850989

 Norm of total gradient   :             0.037271383596
 -    of CI gradient      :             0.034187231547
 -    of orbital gradient :             0.014845512261
      Virial theorem: -V/T =      1.943140
@    MULPOP   C2  _1 -0.74; C2  _2 -0.74; H3  _1  0.37; H3  _2  0.37; H3  _3  0.37; H3  _4  0.37; 

 Residual norm when dim(red L) =  11
 NEO root     CSF        orbital          total
    1     0.00080596     0.00062165     0.00101785 converged

 (NEONEX) NEO vector is converged.

   --- OUTPUT FROM SIRCNO     Keyword = FD+NO 



 --- MACRO ITERATION  4 ---
 --------------------------

 2-el. integral transformation level 3: Total CPU and WALL times (sec)       0.002       0.002

 Total MCSCF energy       :           -77.316936717693252  (MACRO    4)

 - Nuclear repulsion      :            33.312647795599183
 - Inactive energy        :          -105.912174208085617
 - Active energy          :            -4.717410305206830

 Norm of total gradient   :             0.002298880140
 -    of CI gradient      :             0.001233405759
 -    of orbital gradient :             0.001939989725
      Virial theorem: -V/T =      1.942374
@    MULPOP   C2  _1 -0.71; C2  _2 -0.71; H3  _1  0.36; H3  _2  0.36; H3  _3  0.36; H3  _4  0.36; 

 Residual norm when dim(red L) =  14
 NEO root     CSF        orbital          total
    1     0.00000000     0.00026966     0.00026966 converged

 (NEONEX) NEO vector is converged.

   --- OUTPUT FROM SIRCNO     Keyword = FD+NO 



 --- MACRO ITERATION  5 ---
 --------------------------

 2-el. integral transformation level 3: Total CPU and WALL times (sec)       0.002       0.002

 Total MCSCF energy       :           -77.313904633177415  (MACRO    5)

 - Nuclear repulsion      :            33.312647795599183
 - Inactive energy        :          -105.372341792276671
 - Active energy          :            -5.254210636499938

 Norm of total gradient   :             0.135689003851
 -    of CI gradient      :             0.132235141403
 -    of orbital gradient :             0.030419946487
      Virial theorem: -V/T =      1.942168
@    MULPOP   C2  _1 -0.75; C2  _2 -0.75; H3  _1  0.38; H3  _2  0.38; H3  _3  0.38; H3  _4  0.38; 

 (SIRSTP) Energy difference;
 actual, predicted and ratio:   0.003032084515837  -0.001468013717522   -2.065433

 (SIRSTP) step is too large -- backstep

   --- OUTPUT FROM SIRCNO     Keyword = FD+NO 



 Optimization control: Step was too large, we backstep


 --- MACRO ITERATION  5 BACKSTEP NO.  1 ---

 2-el. integral transformation level 3: Total CPU and WALL times (sec)       0.002       0.002

 Total MCSCF energy       :           -77.317972747967460  (MACRO    5)

 - Nuclear repulsion      :            33.312647795599183
 - Inactive energy        :          -105.596614493112966
 - Active energy          :            -5.034006050453667

 Norm of total gradient   :             0.039836599053
 -    of CI gradient      :             0.037347505305
 -    of orbital gradient :             0.013860680778
      Virial theorem: -V/T =      1.940963
@    MULPOP   C2  _1 -0.77; C2  _2 -0.77; H3  _1  0.38; H3  _2  0.38; H3  _3  0.38; H3  _4  0.38; 

 Residual norm when dim(red L) =  10
 NEO root     CSF        orbital          total
    1     0.00350475     0.00113933     0.00368528 converged

 (NEONEX) NEO vector is converged.

   --- OUTPUT FROM SIRCNO     Keyword = FD+NO 



 --- MACRO ITERATION  6 ---
 --------------------------

 2-el. integral transformation level 3: Total CPU and WALL times (sec)       0.002       0.002

 Total MCSCF energy       :           -77.314297835360449  (MACRO    6)

 - Nuclear repulsion      :            33.312647795599183
 - Inactive energy        :          -104.995433868420520
 - Active energy          :            -5.631511762539119

 Norm of total gradient   :             0.144599052835
 -    of CI gradient      :             0.142545026993
 -    of orbital gradient :             0.024285826326
      Virial theorem: -V/T =      1.937930
@    MULPOP   C2  _1 -0.72; C2  _2 -0.72; H3  _1  0.36; H3  _2  0.36; H3  _3  0.36; H3  _4  0.36; 

 (SIRSTP) Energy difference;
 actual, predicted and ratio:   0.003674912607011  -0.004330386635080   -0.848634

 (SIRSTP) step is too large -- backstep

   --- OUTPUT FROM SIRCNO     Keyword = FD+NO 



 Optimization control: Step was too large, we backstep


 --- MACRO ITERATION  6 BACKSTEP NO.  1 ---

 2-el. integral transformation level 3: Total CPU and WALL times (sec)       0.002       0.001

 Total MCSCF energy       :           -77.318969421144331  (MACRO    6)

 - Nuclear repulsion      :            33.312647795599183
 - Inactive energy        :          -105.143598024927343
 - Active energy          :            -5.488019191816180

 Norm of total gradient   :             0.065585862045
 -    of CI gradient      :             0.064676395619
 -    of orbital gradient :             0.010884353446
      Virial theorem: -V/T =      1.937953
@    MULPOP   C2  _1 -0.75; C2  _2 -0.75; H3  _1  0.37; H3  _2  0.37; H3  _3  0.37; H3  _4  0.37; 

 Residual norm when dim(red L) =   7
 NEO root     CSF        orbital          total
    1     0.00289732     0.00087309     0.00302602 converged

 (NEONEX) NEO vector is converged.

   --- OUTPUT FROM SIRCNO     Keyword = FD+NO 



 --- MACRO ITERATION  7 ---
 --------------------------

 2-el. integral transformation level 3: Total CPU and WALL times (sec)       0.002       0.002

 Total MCSCF energy       :           -77.320088860932756  (MACRO    7)

 - Nuclear repulsion      :            33.312647795599183
 - Inactive energy        :          -105.199023223397944
 - Active energy          :            -5.433713433133996

 Norm of total gradient   :             0.005098093762
 -    of CI gradient      :             0.004807740654
 -    of orbital gradient :             0.001695933317
      Virial theorem: -V/T =      1.938082
@    MULPOP   C2  _1 -0.76; C2  _2 -0.76; H3  _1  0.38; H3  _2  0.38; H3  _3  0.38; H3  _4  0.38; 

 Residual norm when dim(red L) =   9
 NEO root     CSF        orbital          total
    1     0.00012006     0.00003750     0.00012578 converged

 (NEONEX) NEO vector is converged.

   --- OUTPUT FROM SIRCNO     Keyword = FD+NO 



 --- MACRO ITERATION  8 ---
 --------------------------

 2-el. integral transformation level 3: Total CPU and WALL times (sec)       0.002       0.001

 Total MCSCF energy       :           -77.320122296175128  (MACRO    8)

 - Nuclear repulsion      :            33.312647795599183
 - Inactive energy        :          -105.239045269862331
 - Active energy          :            -5.393724821911976

 Norm of total gradient   :             0.000396154127
 -    of CI gradient      :             0.000391836949
 -    of orbital gradient :             0.000058325789
      Virial theorem: -V/T =      1.938328
@    MULPOP   C2  _1 -0.76; C2  _2 -0.76; H3  _1  0.38; H3  _2  0.38; H3  _3  0.38; H3  _4  0.38; 

 Residual norm when dim(red L) =   8
 NEO root     CSF        orbital          total
    1     0.00000930     0.00000190     0.00000949 converged

 (NEONEX) NEO vector is converged.

   --- OUTPUT FROM SIRCNO     Keyword = FD+NO 



 --- MACRO ITERATION  9 ---
 --------------------------

 2-el. integral transformation level 3: Total CPU and WALL times (sec)       0.002       0.002

 Total MCSCF energy       :           -77.320122361689300  (MACRO    9)

 - Nuclear repulsion      :            33.312647795599183
 - Inactive energy        :          -105.240213028400774
 - Active energy          :            -5.392557128887713

 Norm of total gradient   :             0.000009539275
 -    of CI gradient      :             0.000009348976
 -    of orbital gradient :             0.000001895896
      Virial theorem: -V/T =      1.938338
@    MULPOP   C2  _1 -0.76; C2  _2 -0.76; H3  _1  0.38; H3  _2  0.38; H3  _3  0.38; H3  _4  0.38; 

 *** Optimization control: MCSCF converged ***
     Number of macro iterations used            9
     Number of micro iterations used           54
     Total number of CPU seconds used         0.04
     Total WALL time used (seconds)           0.04

--------------------------------------------------------------------------------


     .---------------------------------------------------------------.
     | MCSCF EKT IPs [a.u. & eV], pole strengths, and Dyson orbitals |
     `---------------------------------------------------------------'


     MCSCF EKT symmetry 1 ( Ag ) in point group D2h -- 3 principal poles

   ============  ============  ============
      11.161488      0.997403      0.565160
     303.719551     27.140707     15.378795
   ------------  ------------  ------------
       1.000000      0.997996      0.996150
   ============  ============  ============
       1.000000      0.000368      0.000489
      -0.000012      0.811007     -0.585036
       0.000610     -0.583321     -0.808630
   ============  ============  ============

     MCSCF EKT symmetry 2 ( B3u) in point group D2h -- 1 principal poles

   ============
       0.634076
      17.254091
   ------------
       0.845018
   ============
       0.919249
   ============

     MCSCF EKT symmetry 3 ( B2u) in point group D2h -- 1 principal poles

   ============
       0.388349
      10.567503
   ------------
       1.000000
   ============
       1.000000
   ============

     MCSCF EKT symmetry 5 ( B1u) in point group D2h -- 2 principal poles

   ============  ============  ============
      11.160095      0.772634      1.625619
     303.681626     21.024441     44.235356
   ------------  ------------  ------------
       1.000000      1.000000      0.005869
   ============  ============  ============
       1.000000     -0.000000     -0.000003
       0.000000     -1.000000      0.000252
       0.000000      0.000019      0.076612
   ============  ============  ============

     MCSCF EKT symmetry 6 ( B2g) in point group D2h -- 0 principal poles

   ============
       0.794796
      21.627490
   ------------
       0.154966
   ============
       0.393658
   ============

     MCSCF EKT symmetry 7 ( B3g) in point group D2h -- 1 principal poles

   ============
       0.123271
       3.354364
   ------------
       1.000000
   ============
       1.000000
   ============

@ Summary of MCSCF EKT ionization potentials [eV] and pole strengths:

@ Symmetry 1 (Ag ) :   303.720      27.141      15.379
@ Pole strengths   :     1.000       0.998       0.996

@ Symmetry 2 (B3u) :    17.254
@ Pole strengths   :     0.845

@ Symmetry 3 (B2u) :    10.568
@ Pole strengths   :     1.000

@ Symmetry 4 (B1g) :  No IPs in this symmetry

@ Symmetry 5 (B1u) :   303.682      21.024      44.235
@ Pole strengths   :     1.000       1.000       0.006

@ Symmetry 6 (B2g) :    21.627
@ Pole strengths   :     0.155

@ Symmetry 7 (B3g) :     3.354
@ Pole strengths   :     1.000

@ Symmetry 8 (Au ) :  No IPs in this symmetry

  === End of MCSCF EKT output ===
--------------------------------------------------------------------------------

 rdmfilerdm2.dat    
 rdmfilerdms2.dat   
 rdmfilerdms201.dat 
 rdmfilerdms210.dat 

 CPU and wall time for MCSCF :       0.045       0.045


                     .----------------------------------------.
                     | --- SIRIUS OPTIMIZATION STATISTICS --- |
                     `----------------------------------------'


 
     Date and time (Linux)  : Mon Apr  3 12:37:03 2023
     Host name              : markhor                                 


  ITER ITMIC     EMCSCF           GRDNRM        RATIO      STPLNG
 ---------------------------------------------------------------------
    1    4    -77.120978050816   1.2367244072  0.000000   0.4598273569
    2    3    -77.307540473058   0.2366302013  0.807777   0.1341090580
    3    9    -77.316226171660   0.0372713836  0.998061   0.0859667217
    4   12    -77.316936717693   0.0022988801  0.996820   0.7624459849
    5    0    -77.313904633177   0.1356890039 -2.065433   0.0000000000
    5    8    -77.317972747967   0.0398365991  1.452711   0.7153172400
    6    0    -77.314297835360   0.1445990528 -0.848634   0.0000000000
    6    5    -77.318969421144   0.0655858620  0.287240   0.0830989635
    7    7    -77.320088860933   0.0050980938  1.058640   0.0355187894
    8    6    -77.320122296175   0.0003961541  1.021119   0.0011003070
    9    0    -77.320122361689   0.0000095393  1.001794   0.0000000000


  ITER  INDGCM  GCIMAX      GCINRM     INDGOM  GOBMAX      GOBNRM      GRDNRM
 ------------------------------------------------------------------------------
    1      6    0.009402    0.014317     36   -1.032540    1.236642    1.236724
    2      5   -0.028931    0.055691     36    0.225209    0.229983    0.236630
    3      3    0.018416    0.034187     18   -0.009487    0.014846    0.037271
    4      8    0.001021    0.001233      2   -0.001118    0.001940    0.002299
    5      3    0.095644    0.132235     31    0.014485    0.030420    0.135689
    5      3    0.028148    0.037348      2   -0.009234    0.013861    0.039837
    6      5   -0.085781    0.142545      2    0.015498    0.024286    0.144599
    6      3    0.036577    0.064676      2    0.004574    0.010884    0.065586
    7      5   -0.002529    0.004808      2    0.001456    0.001696    0.005098
    8      5   -0.000289    0.000392      2    0.000030    0.000058    0.000396
    9      4    0.000007    0.000009      8   -0.000001    0.000002    0.000010


  ITER ITMIC NCLIN NOLIN   TIMMAC    TIMITR    TIMMIC    TIMLIN    TIMMIC/ITMIC
 ------------------------------------------------------------------------------

    1     4     0     4      0.00      0.00      0.00      0.00      0.00
    2     3     1     2      0.00      0.00      0.00      0.00      0.00
    3     9     5     5      0.01      0.00      0.00      0.00      0.00
    4    12     7     6      0.01      0.00      0.00      0.00      0.00
    5     0     0     0      0.00      0.00      0.00      0.00
    5     8     5     4      0.00      0.00      0.00      0.00      0.00
    6     0     0     0      0.00      0.00      0.00      0.00
    6     5     3     3      0.00      0.00      0.00      0.00      0.00
    7     7     4     4      0.00      0.00      0.00      0.00      0.00
    8     6     3     4      0.00      0.00      0.00      0.00      0.00
    9     0     0     0      0.00      0.00      0.00      0.00


 ITER         EMY                 EACTIV              EMCSCF

    1   -106.041713543063     -4.391912303352    -77.120978050816
    2   -105.827428670006     -4.792759598652    -77.307540473058
    3   -105.928300316408     -4.700573650851    -77.316226171660
    4   -105.912174208086     -4.717410305207    -77.316936717693
    5   -105.372341792277     -5.254210636500    -77.313904633177
    5   -105.596614493113     -5.034006050454    -77.317972747967
    6   -104.995433868421     -5.631511762539    -77.314297835360
    6   -105.143598024927     -5.488019191816    -77.318969421144
    7   -105.199023223398     -5.433713433134    -77.320088860933
    8   -105.239045269862     -5.393724821912    -77.320122296175
    9   -105.240213028401     -5.392557128888    -77.320122361689


 ITER         DEPRED              DEACT               RATIO

    1      0.000000000000      0.000000000000      0.000000000000
    2     -0.230957957097     -0.186562422243      0.807776552008
    3     -0.008702576255     -0.008685698602      0.998060614100
    4     -0.000712812944     -0.000710546033      0.996819767740
    5     -0.001468013718      0.003032084516     -2.065433367309
    5     -0.000713170021     -0.001036030274      1.452711476879
    6     -0.004330386635      0.003674912607     -0.848633832656
    6     -0.003469829424     -0.000996673177      0.287239819296
    7     -0.001057432450     -0.001119439788      1.058639526702
    8     -0.000032743725     -0.000033435242      1.021119084785
    9     -0.000000065397     -0.000000065514      1.001794068992


 ITER    BETA           GAMMA             STPLNG              RTRUST

    1      0.20000000  1.00000000      0.459827356915      0.700000000000
    2      0.20000000  1.00000000      0.134109057954      0.700000000000
    3      0.20000000  1.00000000      0.085966721743      0.700000000000
    4      2.39654673  1.00000000      0.762445984941      0.700000000000
    5      0.00000000  0.00000000      0.000000000000      0.469000000000
    5      0.74569162  1.00000000      0.715317239977      0.675360000000
    6      0.00000000  0.00000000      0.000000000000      0.452491200000
    6      0.20000000  1.00000000      0.083098963517      0.303169104000
    7      0.20000000  1.00000000      0.035518789440      0.436563509760
    8      0.20000000  1.00000000      0.001100307048      0.628651454054
    9      0.00000000  0.00000000      0.000000000000      0.700000000000


 Reduced L root no.  1
 ITER         EVAL              EVEC(1)           EVEC(2)           EVEC(3)
 ----------------------------------------------------------------------------
    1   -0.018321678264    0.995797812794   -0.073767080753   -0.049070635958
    2   -0.000695705603    0.999640489177   -0.025932431944   -0.004728653193
    3   -0.000057008183    0.999852227217   -0.011197987868   -0.008256106283
    4   -0.003886535313   -0.480081922810   -0.148870603367    0.798383597617
    5    0.000000000000    0.000000000000    0.000000000000    0.000000000000
    5   -0.003749157094    0.882326290244    0.023061169747   -0.437708881144
    6    0.000000000000    0.000000000000    0.000000000000    0.000000000000
    6   -0.000084571236    0.999861919850   -0.006001722701   -0.014042169264
    7   -0.000002619366    0.999974769267   -0.000685329614   -0.006765903469
    8   -0.000000005232    0.999999975786   -0.000057143482   -0.000200929563
    9    0.000000000000    0.000000000000    0.000000000000    0.000000000000


                       .-----------------------------------.
                       | --- Final results from SIRIUS --- |
                       `-----------------------------------'


@    Spin multiplicity:           1
@    Spatial symmetry:            1 ( irrep  Ag  in D2h )
@    Total charge of molecule:    0

@    This was an MCSCF calculation.
@    State number:                1

@    Final MCSCF energy:          -77.320122361689                 
@    Nuclear repulsion:            33.312647795599
@    Electronic energy:          -110.632770157288

@    Final gradient norm:           0.000009539275

 
     Date and time (Linux)  : Mon Apr  3 12:37:03 2023
     Host name              : markhor                                 

 Occupancies of natural orbitals
 -------------------------------

 Symmetry 1  ( Ag ) -- Total occupation in this symmetry is   5.988292691

   2.000000000   2.000000000   1.988292691

   Effective number of unpaired electrons this symmetry:  0.0233

 Symmetry 2  ( B3u) -- Total occupation in this symmetry is   1.690036090

   1.690036090

   Effective number of unpaired electrons this symmetry:  0.5239

 Symmetry 3  ( B2u) -- Total occupation in this symmetry is   2.000000000

   2.000000000

 Symmetry 4  ( B1g) -- No occupied orbitals

 Symmetry 5  ( B1u) -- Total occupation in this symmetry is   4.011738677

   2.000000000   2.000000000   0.011738677

   Effective number of unpaired electrons this symmetry:  0.0233

 Symmetry 6  ( B2g) -- Total occupation in this symmetry is   0.309932542

   0.309932542

   Effective number of unpaired electrons this symmetry:  0.5238

 Symmetry 7  ( B3g) -- Total occupation in this symmetry is   2.000000000

   2.000000000

 Symmetry 8  ( Au ) -- No occupied orbitals

 Total effective number of unpaired electrons :  1.0943
    ( = sum(i) (2 - n_i)*n_i  for natural orbitals)

File label for MO orbitals:   3Apr23   (CNOORB)

 (Only coefficients > 0.0100 are printed.)

 Molecular orbitals for symmetry species 1  (Ag )
 ------------------------------------------------

    Orbital         1        2        3        4        5        6        7
   1 C2  :1s     0.7040  -0.1168   0.1055   0.0778  -0.0182  -0.0315   0.0321
   2 C2  :1s     0.0173   0.2203  -0.2129  -0.0746  -0.1782  -0.8430  -1.1401
   3 C2  :1s    -0.0067   0.1830  -0.1297  -1.4920  -0.3312   1.3596   1.7634
   4 C2  :2pz    0.0002   0.1518   0.3839  -0.1361   0.5922   0.1202  -0.3280
   5 C2  :2pz   -0.0009   0.0884   0.1263  -0.6638  -1.0901   0.2496   0.4195
   6 H3  :1s    -0.0006   0.1531   0.0566   0.0117   0.1342  -0.4781   0.4470
   7 H3  :1s     0.0019   0.0814   0.0722   1.0333   0.0853  -0.1552  -0.8526

 Molecular orbitals for symmetry species 2  (B3u)
 ------------------------------------------------

    Orbital         1        2        3        4
   1 C2  :2px    0.2929  -0.2466   0.4002   0.7428
   2 C2  :2px    0.1286  -0.8444  -0.8389  -0.9750
   3 H3  :1s     0.1780   0.0388   0.4290  -0.5051
   4 H3  :1s     0.1112   1.1143   0.0975   1.0207

 Molecular orbitals for symmetry species 3  (B2u)
 ------------------------------------------------

    Orbital         1        2
   1 C2  :2py    0.3942   0.7482
   2 C2  :2py    0.2942  -0.6470

 Molecular orbitals for symmetry species 5  (B1u)
 ------------------------------------------------

    Orbital         1        2        3        4        5        6        7
   1 C2  :1s     0.7045  -0.1194   0.1126  -0.0759   0.0279  -0.0746  -0.0427
   2 C2  :1s     0.0183   0.2274  -0.6477   0.0391   0.1784  -0.0148  -1.5830
   3 C2  :1s    -0.0141   0.2392  -0.4265   1.0053  -3.0045   1.6577   5.3859
   4 C2  :2pz   -0.0001   0.1590   0.7878   0.2062  -0.3817   0.4670  -0.2540
   5 C2  :2pz    0.0026   0.0777   0.2286   0.9320   2.8352  -1.6771  -1.2256
   6 H3  :1s    -0.0004   0.1550   0.0611  -0.0179  -0.2407  -0.6443  -0.0854
   7 H3  :1s     0.0018   0.0634   0.0267  -1.1835  -0.2701   0.7639  -0.6547

 Molecular orbitals for symmetry species 6  (B2g)
 ------------------------------------------------

    Orbital         1        2        3        4
   1 C2  :2px    0.3210  -0.2060  -0.9255  -0.1109
   2 C2  :2px    0.2272  -1.9273   2.6616   2.8330
   3 H3  :1s     0.2257  -0.0401   0.2055  -0.7488
   4 H3  :1s     0.0756   1.6600  -1.3897  -0.7717

 Molecular orbitals for symmetry species 7  (B3g)
 ------------------------------------------------

    Orbital         1        2
   1 C2  :2py    0.4088  -0.7927
   2 C2  :2py    0.6556   1.1199

 Printout of CI-coefficients abs greater than 0.05000 for root  1
 *** NOTE: this root is the reference state ***

 Printout of coefficients in interval  3.1623E-01 to  1.0000E+00
 ===============================================================

  Coefficient of CSF no.         1 is     -0.91651451   -9.16514509E-01
  Orbital          1   2
  Spin coupling    2   2

  Coefficient of CSF no.         4 is      0.39015816    3.90158159E-01
  Orbital          1   4
  Spin coupling    2   2

 Printout of coefficients in interval  1.0000E-01 to  3.1623E-01
 ===============================================================
   ( no coefficients )

 Printout of coefficients in interval  5.0000E-02 to  1.0000E-01
 ===============================================================

  Coefficient of CSF no.         3 is      0.05577430    5.57743000E-02
  Orbital          2   3
  Spin coupling    2   2

  Coefficient of CSF no.         8 is     -0.05309204   -5.30920369E-02
  Orbital          1   2   3   4
  Spin coupling    1  -1   1  -1

 Norm of printed CI vector ..      0.99815177

 Magnitude of CI coefficients
 ============================
 ( Ranges are relative to norm of vector :  1.00E+00 )

  10- 1 to 10- 0         2    0.99222223E+00      0.9922222348
  10- 2 to 10- 1         4    0.77612433E-02      0.9999834781
  10- 3 to 10- 2         1    0.16102895E-04      0.9999995810
  10- 4 to 10- 3         1    0.41899391E-06      1.0000000000
  Number of coefficients less than 10^-11 times norm is            0

  Total CPU  time used in SIRIUS :   0.07 seconds
  Total wall time used in SIRIUS :   0.07 seconds

 
     Date and time (Linux)  : Mon Apr  3 12:37:03 2023
     Host name              : markhor                                 

 NOTE:    1 warnings have been issued.
 Check output, result, and error files for "WARNING".


                     .---------------------------------------.
                     | End of Wave Function Section (SIRIUS) |
                     `---------------------------------------'

  Total CPU  time used in DALTON:   0.08 seconds
  Total wall time used in DALTON:   0.08 seconds

 
     Date and time (Linux)  : Mon Apr  3 12:37:03 2023
     Host name              : markhor                                 
